# Probe 0 (0 1 0)
#         Probe               0
#          Time
          0.005               (0.016432962 -7.3692077e-22 0)
           0.01               (0.038312661 4.1444364e-21 0)
          0.015               (0.062029904 -1.3071685e-20 0)
           0.02               (0.086383192 -3.4822287e-20 0)
          0.025               (0.11096731 -1.0290361e-20 0)
           0.03               (0.13564299 -7.6480005e-21 0)
          0.035               (0.16036081 -7.188676e-21 0)
           0.04               (0.18510219 6.6376841e-20 0)
          0.045               (0.20985942 2.5685888e-20 0)
           0.05               (0.23462882 3.3415043e-20 0)
          0.055               (0.25940828 6.50206e-21 0)
           0.06               (0.28419643 -7.011613e-20 0)
          0.065               (0.30899227 -8.3898188e-20 0)
           0.07               (0.333795 -1.072327e-19 0)
          0.075               (0.35860398 -1.1869027e-19 0)
           0.08               (0.38341867 -1.643212e-19 0)
          0.085               (0.40823862 -4.1911826e-20 0)
           0.09               (0.43306342 -6.453904e-20 0)
          0.095               (0.45789274 -5.4653798e-20 0)
            0.1               (0.48272626 1.4945608e-20 0)
          0.105               (0.50756371 1.975534e-19 0)
           0.11               (0.53240485 3.0147778e-19 0)
          0.115               (0.55724946 3.6110394e-19 0)
           0.12               (0.58209734 4.0703671e-19 0)
          0.125               (0.60694828 5.5451456e-19 0)
           0.13               (0.63180212 6.2984715e-19 0)
          0.135               (0.65665868 6.3027268e-19 0)
           0.14               (0.68151779 7.1579465e-19 0)
          0.145               (0.7063793 7.2854811e-19 0)
           0.15               (0.73124304 5.6191226e-19 0)
          0.155               (0.75610885 4.5332633e-19 0)
           0.16               (0.78097659 3.0313061e-19 0)
          0.165               (0.80584609 1.0768657e-20 0)
           0.17               (0.8307172 -8.0953007e-20 0)
          0.175               (0.85558978 -1.8968962e-19 0)
           0.18               (0.88046365 -1.4086975e-19 0)
          0.185               (0.90533869 -2.2860525e-19 0)
           0.19               (0.93021472 -1.8684307e-19 0)
          0.195               (0.95509161 -1.1367504e-19 0)
            0.2               (0.97996919 -7.3325023e-21 0)
          0.205               (1.0048473 5.131733e-20 0)
           0.21               (1.0297259 2.7341728e-19 0)
          0.215               (1.0546047 2.3716242e-19 0)
           0.22               (1.0794836 -1.4720397e-19 0)
          0.225               (1.1043625 -2.6337496e-19 0)
           0.23               (1.1292412 -2.9170121e-19 0)
          0.235               (1.1541196 -4.438568e-19 0)
           0.24               (1.1789975 -6.8341176e-19 0)
          0.245               (1.2038749 -5.6792532e-19 0)
           0.25               (1.2287514 -2.1917218e-21 0)
          0.255               (1.2536271 3.0220541e-19 0)
           0.26               (1.2785018 5.2485581e-19 0)
          0.265               (1.3033752 4.2067293e-19 0)
           0.27               (1.3282473 5.4798742e-19 0)
          0.275               (1.3531179 6.6512106e-19 0)
           0.28               (1.3779869 1.2014273e-18 0)
          0.285               (1.4028541 1.8327129e-18 0)
           0.29               (1.4277194 1.7898756e-18 0)
          0.295               (1.4525825 1.8738771e-18 0)
            0.3               (1.4774433 1.75943e-18 0)
          0.305               (1.5023018 1.8802674e-18 0)
           0.31               (1.5271575 2.2661798e-18 0)
          0.315               (1.5520105 2.7145709e-18 0)
           0.32               (1.5768606 2.7435336e-18 0)
          0.325               (1.6017074 2.6533089e-18 0)
           0.33               (1.6265509 2.4655741e-18 0)
          0.335               (1.6513908 2.2631593e-18 0)
           0.34               (1.676227 2.2559193e-18 0)
          0.345               (1.7010592 2.0120405e-18 0)
           0.35               (1.7258872 1.904927e-18 0)
          0.355               (1.7507109 2.0390871e-18 0)
           0.36               (1.7755298 1.9418266e-18 0)
          0.365               (1.8003439 1.9698767e-18 0)
           0.37               (1.8251529 2.0751085e-18 0)
          0.375               (1.8499565 1.826382e-18 0)
           0.38               (1.8747545 1.5415632e-18 0)
          0.385               (1.8995467 1.5162562e-18 0)
           0.39               (1.9243326 1.5522467e-18 0)
          0.395               (1.9491122 1.8899128e-18 0)
            0.4               (1.973885 1.9241186e-18 0)
          0.405               (1.9986508 2.2817587e-18 0)
           0.41               (2.0234093 2.4055582e-18 0)
          0.415               (2.0481602 2.374901e-18 0)
           0.42               (2.0729032 2.6609723e-18 0)
          0.425               (2.0976379 2.7536111e-18 0)
           0.43               (2.122364 2.5829126e-18 0)
          0.435               (2.1470812 2.529749e-18 0)
           0.44               (2.1717892 2.5764426e-18 0)
          0.445               (2.1964876 2.431456e-18 0)
           0.45               (2.221176 2.6239555e-18 0)
          0.455               (2.2458541 2.7997891e-18 0)
           0.46               (2.2705215 2.8044726e-18 0)
          0.465               (2.2951778 2.5896373e-18 0)
           0.47               (2.3198226 2.6007164e-18 0)
          0.475               (2.3444556 2.6355142e-18 0)
           0.48               (2.3690764 2.6507163e-18 0)
          0.485               (2.3936845 2.8656488e-18 0)
           0.49               (2.4182796 2.8598741e-18 0)
          0.495               (2.4428612 3.2954927e-18 0)
            0.5               (2.4674289 3.4124624e-18 0)
          0.505               (2.4919823 3.4006634e-18 0)
           0.51               (2.5165209 3.6057139e-18 0)
          0.515               (2.5410444 3.2213267e-18 0)
           0.52               (2.5655522 2.7823622e-18 0)
          0.525               (2.5900439 2.2037399e-18 0)
           0.53               (2.6145191 2.3487544e-18 0)
          0.535               (2.6389774 2.5572719e-18 0)
           0.54               (2.6634182 2.7118387e-18 0)
          0.545               (2.6878411 3.1416353e-18 0)
           0.55               (2.7122456 3.4166137e-18 0)
          0.555               (2.7366312 3.4711134e-18 0)
           0.56               (2.7609975 3.8066135e-18 0)
          0.565               (2.7853439 4.2793762e-18 0)
           0.57               (2.8096699 4.7653742e-18 0)
          0.575               (2.8339751 4.7999713e-18 0)
           0.58               (2.8582589 5.1592776e-18 0)
          0.585               (2.8825208 4.9205451e-18 0)
           0.59               (2.9067603 4.4035735e-18 0)
          0.595               (2.9309768 3.9035443e-18 0)
            0.6               (2.95517 3.8450517e-18 0)
          0.605               (2.9793393 4.0350289e-18 0)
           0.61               (3.0034841 3.937368e-18 0)
          0.615               (3.027604 3.4743042e-18 0)
           0.62               (3.0516983 2.535557e-18 0)
          0.625               (3.0757667 2.8004436e-18 0)
           0.63               (3.0998086 2.7824918e-18 0)
          0.635               (3.1238234 3.1737079e-18 0)
           0.64               (3.1478106 3.4368452e-18 0)
          0.645               (3.1717697 4.5876828e-18 0)
           0.65               (3.1957001 5.4768031e-18 0)
          0.655               (3.2196012 5.9096167e-18 0)
           0.66               (3.2434726 6.3462659e-18 0)
          0.665               (3.2673137 6.9473257e-18 0)
           0.67               (3.2911239 7.2113159e-18 0)
          0.675               (3.3149027 7.0617373e-18 0)
           0.68               (3.3386495 7.9876345e-18 0)
          0.685               (3.3623637 7.6002774e-18 0)
           0.69               (3.3860449 7.6461787e-18 0)
          0.695               (3.4096923 7.2809817e-18 0)
            0.7               (3.4333056 7.6569063e-18 0)
          0.705               (3.4568841 7.7606895e-18 0)
           0.71               (3.4804274 7.0991592e-18 0)
          0.715               (3.5039347 6.8916442e-18 0)
           0.72               (3.5274057 6.9176745e-18 0)
          0.725               (3.5508397 6.1464761e-18 0)
           0.73               (3.5742362 5.8485195e-18 0)
          0.735               (3.5975946 5.2392147e-18 0)
           0.74               (3.6209144 5.9592177e-18 0)
          0.745               (3.6441951 6.9148523e-18 0)
           0.75               (3.6674361 7.5181815e-18 0)
          0.755               (3.6906368 8.6025287e-18 0)
           0.76               (3.7137967 8.7042431e-18 0)
          0.765               (3.7369152 8.2047584e-18 0)
           0.77               (3.7599919 8.5747799e-18 0)
          0.775               (3.783026 8.0197756e-18 0)
           0.78               (3.8060171 7.3905787e-18 0)
          0.785               (3.8289647 7.1472818e-18 0)
           0.79               (3.8518681 7.093686e-18 0)
          0.795               (3.8747268 7.3946216e-18 0)
            0.8               (3.8975404 6.8949218e-18 0)
          0.805               (3.9203081 6.0940145e-18 0)
           0.81               (3.9430296 5.5894337e-18 0)
          0.815               (3.9657042 5.9351233e-18 0)
           0.82               (3.9883314 5.8000646e-18 0)
          0.825               (4.0109108 6.1576088e-18 0)
           0.83               (4.0334418 5.9196075e-18 0)
          0.835               (4.0559238 5.5368155e-18 0)
           0.84               (4.0783563 5.2984611e-18 0)
          0.845               (4.1007388 4.4104369e-18 0)
           0.85               (4.1230706 3.5261345e-18 0)
          0.855               (4.1453514 3.6252785e-18 0)
           0.86               (4.1675806 4.1773083e-18 0)
          0.865               (4.1897576 4.4284484e-18 0)
           0.87               (4.2118819 5.120155e-18 0)
          0.875               (4.233953 5.3904538e-18 0)
           0.88               (4.2559704 5.7969809e-18 0)
          0.885               (4.2779335 6.3864778e-18 0)
           0.89               (4.2998419 7.1859524e-18 0)
          0.895               (4.3216949 7.694379e-18 0)
            0.9               (4.3434922 7.7432889e-18 0)
          0.905               (4.3652331 7.7311066e-18 0)
           0.91               (4.3869173 8.1647835e-18 0)
          0.915               (4.4085442 8.5303287e-18 0)
           0.92               (4.4301133 9.0213171e-18 0)
          0.925               (4.4516243 8.7052208e-18 0)
           0.93               (4.4730768 9.299131e-18 0)
          0.935               (4.4944701 1.0449877e-17 0)
           0.94               (4.5158039 1.1369947e-17 0)
          0.945               (4.5370775 1.2098665e-17 0)
           0.95               (4.5582906 1.2364393e-17 0)
          0.955               (4.5794426 1.2920664e-17 0)
           0.96               (4.600533 1.3667025e-17 0)
          0.965               (4.6215614 1.2966534e-17 0)
           0.97               (4.6425273 1.2817095e-17 0)
          0.975               (4.6634301 1.2897107e-17 0)
           0.98               (4.6842695 1.3006585e-17 0)
          0.985               (4.705045 1.2793399e-17 0)
           0.99               (4.725756 1.2186261e-17 0)
          0.995               (4.7464023 1.1534422e-17 0)
              1               (4.7669834 1.0649525e-17 0)
          1.005               (4.7874988 9.68911e-18 0)
           1.01               (4.807948 8.7593594e-18 0)
          1.015               (4.8283307 8.232396e-18 0)
           1.02               (4.8486464 8.1117337e-18 0)
          1.025               (4.8688947 7.412357e-18 0)
           1.03               (4.8890752 6.2330519e-18 0)
          1.035               (4.9091874 6.648722e-18 0)
           1.04               (4.9292311 6.5325146e-18 0)
          1.045               (4.9492057 6.1336491e-18 0)
           1.05               (4.9691109 5.5154154e-18 0)
          1.055               (4.9889463 5.5789419e-18 0)
           1.06               (5.0087117 6.150152e-18 0)
          1.065               (5.0284065 5.7552401e-18 0)
           1.07               (5.0480304 6.3517752e-18 0)
          1.075               (5.0675828 6.4518749e-18 0)
           1.08               (5.0870635 7.3122524e-18 0)
          1.085               (5.106472 8.3341858e-18 0)
           1.09               (5.1258081 9.6050295e-18 0)
          1.095               (5.1450712 9.5801454e-18 0)
            1.1               (5.1642609 1.0816805e-17 0)
          1.105               (5.1833771 1.0752552e-17 0)
           1.11               (5.2024191 1.0866962e-17 0)
          1.115               (5.2213869 1.0554849e-17 0)
           1.12               (5.2402799 1.0095732e-17 0)
          1.125               (5.2590978 9.152048e-18 0)
           1.13               (5.2778404 9.1123056e-18 0)
          1.135               (5.2965072 9.0632399e-18 0)
           1.14               (5.3150979 9.2889202e-18 0)
          1.145               (5.3336122 9.8083056e-18 0)
           1.15               (5.35205 1.0285173e-17 0)
          1.155               (5.3704109 1.0486036e-17 0)
           1.16               (5.3886945 9.7639328e-18 0)
          1.165               (5.4069004 9.7053991e-18 0)
           1.17               (5.4250284 8.2573138e-18 0)
          1.175               (5.4430781 6.9998921e-18 0)
           1.18               (5.4610491 6.4582076e-18 0)
          1.185               (5.4789413 6.5524834e-18 0)
           1.19               (5.4967543 6.255941e-18 0)
          1.195               (5.5144878 6.0558061e-18 0)
            1.2               (5.5321414 5.2900941e-18 0)
          1.205               (5.5497149 3.4697492e-18 0)
           1.21               (5.567208 1.9051293e-18 0)
          1.215               (5.5846205 8.4290359e-19 0)
           1.22               (5.6019521 2.1874384e-19 0)
          1.225               (5.6192026 -5.1203615e-19 0)
           1.23               (5.6363715 -1.2611255e-18 0)
          1.235               (5.6534588 -1.9006529e-18 0)
           1.24               (5.6704641 -2.2454006e-18 0)
          1.245               (5.6873873 -3.0690101e-18 0)
           1.25               (5.7042281 -3.295864e-18 0)
          1.255               (5.7209863 -4.1477093e-18 0)
           1.26               (5.7376617 -5.0667259e-18 0)
          1.265               (5.754254 -5.9047197e-18 0)
           1.27               (5.7707629 -5.3662508e-18 0)
          1.275               (5.7871883 -5.4644698e-18 0)
           1.28               (5.8035298 -4.793405e-18 0)
          1.285               (5.8197873 -4.6480294e-18 0)
           1.29               (5.8359605 -4.831313e-18 0)
          1.295               (5.8520492 -5.2515332e-18 0)
            1.3               (5.8680532 -6.097283e-18 0)
          1.305               (5.8839722 -6.3740133e-18 0)
           1.31               (5.8998061 -7.4213191e-18 0)
          1.315               (5.9155546 -8.4848298e-18 0)
           1.32               (5.9312177 -9.023308e-18 0)
          1.325               (5.946795 -9.6948306e-18 0)
           1.33               (5.9622865 -9.4639299e-18 0)
          1.335               (5.9776921 -9.5226521e-18 0)
           1.34               (5.9930115 -8.6756997e-18 0)
          1.345               (6.0082447 -8.1815232e-18 0)
           1.35               (6.0233913 -7.8433209e-18 0)
          1.355               (6.0384512 -8.7994033e-18 0)
           1.36               (6.0534243 -9.3325925e-18 0)
          1.365               (6.0683103 -1.0636255e-17 0)
           1.37               (6.0831092 -1.193012e-17 0)
          1.375               (6.0978207 -1.2353203e-17 0)
           1.38               (6.1124447 -1.3002302e-17 0)
          1.385               (6.1269811 -1.3211515e-17 0)
           1.39               (6.1414297 -1.2843063e-17 0)
          1.395               (6.1557903 -1.2642534e-17 0)
            1.4               (6.1700627 -1.3881509e-17 0)
          1.405               (6.1842469 -1.4321501e-17 0)
           1.41               (6.1983428 -1.3426239e-17 0)
          1.415               (6.2123501 -1.2999781e-17 0)
           1.42               (6.2262689 -1.2437908e-17 0)
          1.425               (6.240099 -1.2852508e-17 0)
           1.43               (6.2538403 -1.4333684e-17 0)
          1.435               (6.2674927 -1.4620117e-17 0)
           1.44               (6.2810561 -1.4543059e-17 0)
          1.445               (6.2945303 -1.4629236e-17 0)
           1.45               (6.3079151 -1.5552103e-17 0)
          1.455               (6.3212105 -1.5619611e-17 0)
           1.46               (6.3344165 -1.5566678e-17 0)
          1.465               (6.3475329 -1.622953e-17 0)
           1.47               (6.3605597 -1.6914805e-17 0)
          1.475               (6.3734971 -1.7870245e-17 0)
           1.48               (6.386345 -1.8025001e-17 0)
          1.485               (6.3991032 -1.8032307e-17 0)
           1.49               (6.4117717 -1.8131085e-17 0)
          1.495               (6.4243502 -1.7976168e-17 0)
            1.5               (6.4368388 -1.8236895e-17 0)
          1.505               (6.4492374 -1.9419553e-17 0)
           1.51               (6.4615459 -2.0667775e-17 0)
          1.515               (6.4737642 -2.1931974e-17 0)
           1.52               (6.4858924 -2.2164147e-17 0)
          1.525               (6.4979303 -2.2817495e-17 0)
           1.53               (6.5098778 -2.3125767e-17 0)
          1.535               (6.5217349 -2.2801983e-17 0)
           1.54               (6.5335015 -2.2291125e-17 0)
          1.545               (6.5451777 -2.161325e-17 0)
           1.55               (6.5567633 -2.1230648e-17 0)
          1.555               (6.5682584 -2.0659198e-17 0)
           1.56               (6.5796629 -2.0191974e-17 0)
          1.565               (6.5909769 -1.948156e-17 0)
           1.57               (6.6022005 -1.8675121e-17 0)
          1.575               (6.6133334 -1.765492e-17 0)
           1.58               (6.6243757 -1.7810624e-17 0)
          1.585               (6.6353274 -1.6884734e-17 0)
           1.59               (6.6461885 -1.6877588e-17 0)
          1.595               (6.656959 -1.6902256e-17 0)
            1.6               (6.6676389 -1.7400813e-17 0)
          1.605               (6.6782282 -1.8027386e-17 0)
           1.61               (6.6887269 -1.8908897e-17 0)
          1.615               (6.6991349 -2.0076768e-17 0)
           1.62               (6.7094528 -1.9621488e-17 0)
          1.625               (6.7196806 -2.0102225e-17 0)
           1.63               (6.7298181 -2.0124431e-17 0)
          1.635               (6.7398654 -1.9996831e-17 0)
           1.64               (6.7498223 -1.875744e-17 0)
          1.645               (6.759689 -1.8090205e-17 0)
           1.65               (6.7694653 -1.8442627e-17 0)
          1.655               (6.7791513 -1.8361144e-17 0)
           1.66               (6.7887469 -1.8535961e-17 0)
          1.665               (6.7982521 -1.8391774e-17 0)
           1.67               (6.807667 -1.8393195e-17 0)
          1.675               (6.8169917 -1.745693e-17 0)
           1.68               (6.8262262 -1.6567941e-17 0)
          1.685               (6.8353705 -1.5692079e-17 0)
           1.69               (6.8444247 -1.616234e-17 0)
          1.695               (6.8533888 -1.6700723e-17 0)
            1.7               (6.8622629 -1.6868884e-17 0)
          1.705               (6.871047 -1.7608566e-17 0)
           1.71               (6.879741 -1.7985316e-17 0)
          1.715               (6.8883453 -1.7876061e-17 0)
           1.72               (6.8968601 -1.6910932e-17 0)
          1.725               (6.9052853 -1.6308405e-17 0)
           1.73               (6.9136209 -1.6091577e-17 0)
          1.735               (6.921867 -1.5731649e-17 0)
           1.74               (6.9300236 -1.4810729e-17 0)
          1.745               (6.9380908 -1.3865863e-17 0)
           1.75               (6.9460687 -1.4533354e-17 0)
          1.755               (6.9539573 -1.4872632e-17 0)
           1.76               (6.9617568 -1.5168279e-17 0)
          1.765               (6.9694671 -1.5151206e-17 0)
           1.77               (6.9770884 -1.5127715e-17 0)
          1.775               (6.9846209 -1.5446906e-17 0)
           1.78               (6.9920645 -1.4906487e-17 0)
          1.785               (6.9994193 -1.4768532e-17 0)
           1.79               (7.0066855 -1.3923132e-17 0)
          1.795               (7.013863 -1.4595295e-17 0)
            1.8               (7.0209521 -1.4720994e-17 0)
          1.805               (7.0279527 -1.5543447e-17 0)
           1.81               (7.0348651 -1.6367909e-17 0)
          1.815               (7.0416893 -1.7200892e-17 0)
           1.82               (7.0484255 -1.8132114e-17 0)
          1.825               (7.0550737 -1.7797842e-17 0)
           1.83               (7.061634 -1.8332342e-17 0)
          1.835               (7.0681064 -1.8320696e-17 0)
           1.84               (7.0744912 -1.8096898e-17 0)
          1.845               (7.0807883 -1.7734047e-17 0)
           1.85               (7.0869981 -1.7766608e-17 0)
          1.855               (7.0931205 -1.7080115e-17 0)
           1.86               (7.0991562 -1.7380525e-17 0)
          1.865               (7.1051053 -1.6943461e-17 0)
           1.87               (7.1109679 -1.6892421e-17 0)
          1.875               (7.1167438 -1.6831554e-17 0)
           1.88               (7.1224333 -1.6888399e-17 0)
          1.885               (7.1280364 -1.6667891e-17 0)
           1.89               (7.1335532 -1.5710698e-17 0)
          1.895               (7.1389839 -1.5634358e-17 0)
            1.9               (7.1443286 -1.6336277e-17 0)
          1.905               (7.1495874 -1.6178343e-17 0)
           1.91               (7.1547604 -1.5884584e-17 0)
          1.915               (7.1598477 -1.7344378e-17 0)
           1.92               (7.1648496 -1.8635951e-17 0)
          1.925               (7.169766 -1.922556e-17 0)
           1.93               (7.1745972 -1.9432612e-17 0)
          1.935               (7.1793434 -1.8898854e-17 0)
           1.94               (7.1840045 -1.859501e-17 0)
          1.945               (7.1885809 -1.9040528e-17 0)
           1.95               (7.1930726 -1.8312887e-17 0)
          1.955               (7.1974798 -1.785767e-17 0)
           1.96               (7.2018027 -1.7573586e-17 0)
          1.965               (7.2060415 -1.7241143e-17 0)
           1.97               (7.2101962 -1.74734e-17 0)
          1.975               (7.214267 -1.832493e-17 0)
           1.98               (7.2182542 -1.9158819e-17 0)
          1.985               (7.222158 -1.9350715e-17 0)
           1.99               (7.2259784 -2.0251647e-17 0)
          1.995               (7.2297158 -2.1300771e-17 0)
              2               (7.2333705 -2.1340143e-17 0)
          2.005               (7.2369426 -2.1960239e-17 0)
           2.01               (7.2404322 -2.268018e-17 0)
          2.015               (7.2438394 -2.2750056e-17 0)
           2.02               (7.2471645 -2.3445073e-17 0)
          2.025               (7.2504075 -2.2543759e-17 0)
           2.03               (7.2535686 -2.1013088e-17 0)
          2.035               (7.2566481 -2.1082162e-17 0)
           2.04               (7.259646 -2.1496884e-17 0)
          2.045               (7.2625626 -2.1298911e-17 0)
           2.05               (7.265398 -2.01379e-17 0)
          2.055               (7.2681525 -1.951119e-17 0)
           2.06               (7.2708261 -1.9767271e-17 0)
          2.065               (7.2734191 -1.9705634e-17 0)
           2.07               (7.2759316 -2.0531929e-17 0)
          2.075               (7.2783639 -2.05641e-17 0)
           2.08               (7.2807162 -2.0313519e-17 0)
          2.085               (7.2829885 -2.0754296e-17 0)
           2.09               (7.2851812 -2.1629417e-17 0)
          2.095               (7.2872944 -2.2430249e-17 0)
            2.1               (7.2893283 -2.330391e-17 0)
          2.105               (7.291283 -2.3410579e-17 0)
           2.11               (7.2931588 -2.2654131e-17 0)
          2.115               (7.2949559 -2.2995095e-17 0)
           2.12               (7.2966745 -2.3926586e-17 0)
          2.125               (7.2983147 -2.5904243e-17 0)
           2.13               (7.2998768 -2.6827737e-17 0)
          2.135               (7.3013609 -2.7346831e-17 0)
           2.14               (7.3027673 -2.7194602e-17 0)
          2.145               (7.3040962 -2.7821239e-17 0)
           2.15               (7.3053477 -2.827967e-17 0)
          2.155               (7.3065221 -2.9177823e-17 0)
           2.16               (7.3076196 -2.8554252e-17 0)
          2.165               (7.3086403 -2.8748047e-17 0)
           2.17               (7.3095845 -2.8673397e-17 0)
          2.175               (7.3104524 -2.8547603e-17 0)
           2.18               (7.3112442 -2.8524572e-17 0)
          2.185               (7.3119601 -2.9459795e-17 0)
           2.19               (7.3126003 -3.0971063e-17 0)
          2.195               (7.313165 -3.2314901e-17 0)
            2.2               (7.3136544 -3.3568552e-17 0)
          2.205               (7.3140687 -3.4272808e-17 0)
           2.21               (7.3144082 -3.4523988e-17 0)
          2.215               (7.3146731 -3.4667162e-17 0)
           2.22               (7.3148635 -3.4832403e-17 0)
          2.225               (7.3149797 -3.4982285e-17 0)
           2.23               (7.3150219 -3.6043237e-17 0)
          2.235               (7.3149903 -3.5343061e-17 0)
           2.24               (7.3148852 -3.4550894e-17 0)
          2.245               (7.3147066 -3.6186376e-17 0)
           2.25               (7.314455 -3.8438851e-17 0)
          2.255               (7.3141304 -3.9573441e-17 0)
           2.26               (7.3137331 -4.1383215e-17 0)
          2.265               (7.3132633 -4.1633518e-17 0)
           2.27               (7.3127213 -4.1504979e-17 0)
          2.275               (7.3121072 -4.0981167e-17 0)
           2.28               (7.3114213 -4.1066685e-17 0)
          2.285               (7.3106638 -4.023566e-17 0)
           2.29               (7.3098349 -4.012567e-17 0)
          2.295               (7.3089348 -4.0394278e-17 0)
            2.3               (7.3079638 -4.064984e-17 0)
          2.305               (7.3069221 -4.1387347e-17 0)
           2.31               (7.3058098 -4.3521559e-17 0)
          2.315               (7.3046273 -4.2472439e-17 0)
           2.32               (7.3033748 -4.1982124e-17 0)
          2.325               (7.3020524 -4.249127e-17 0)
           2.33               (7.3006605 -4.2524447e-17 0)
          2.335               (7.2991991 -4.3338816e-17 0)
           2.34               (7.2976687 -4.5622819e-17 0)
          2.345               (7.2960693 -4.686134e-17 0)
           2.35               (7.2944012 -4.6204955e-17 0)
          2.355               (7.2926647 -3.6243913e-17 0)
           2.36               (7.2908599 -2.7003787e-17 0)
          2.365               (7.2889871 -2.1972495e-17 0)
           2.37               (7.2870465 -1.9479298e-17 0)
          2.375               (7.2850384 -1.7802156e-17 0)
           2.38               (7.282963 -1.7904095e-17 0)
          2.385               (7.2808205 -1.8552787e-17 0)
           2.39               (7.2786111 -1.9410442e-17 0)
          2.395               (7.2763351 -2.0276658e-17 0)
            2.4               (7.2739927 -2.1414183e-17 0)
          2.405               (7.2715841 -2.3179031e-17 0)
           2.41               (7.2691096 -2.5344959e-17 0)
          2.415               (7.2665694 -2.7108509e-17 0)
           2.42               (7.2639637 -2.8946893e-17 0)
          2.425               (7.2612928 -3.0818373e-17 0)
           2.43               (7.2585568 -3.239539e-17 0)
          2.435               (7.2557561 -3.3954419e-17 0)
           2.44               (7.2528909 -3.4685953e-17 0)
          2.445               (7.2499613 -3.5970678e-17 0)
           2.45               (7.2469677 -3.7121501e-17 0)
          2.455               (7.2439102 -3.7885346e-17 0)
           2.46               (7.2407891 -3.8743598e-17 0)
          2.465               (7.2376046 -3.8670967e-17 0)
           2.47               (7.234357 -4.0326133e-17 0)
          2.475               (7.2310465 -4.2100673e-17 0)
           2.48               (7.2276733 -4.504519e-17 0)
          2.485               (7.2242377 -3.8988096e-17 0)
           2.49               (7.2207399 -3.1657559e-17 0)
          2.495               (7.2171801 -2.5339453e-17 0)
            2.5               (7.2135585 -2.1218604e-17 0)
          2.505               (7.2098755 -1.9099536e-17 0)
           2.51               (7.2061312 -1.8035527e-17 0)
          2.515               (7.2023259 -1.8129024e-17 0)
           2.52               (7.1984598 -1.7291087e-17 0)
          2.525               (7.1945332 -1.780067e-17 0)
           2.53               (7.1905462 -1.8039118e-17 0)
          2.535               (7.1864992 -1.9048468e-17 0)
           2.54               (7.1823923 -2.0095361e-17 0)
          2.545               (7.1782258 -2.0885872e-17 0)
           2.55               (7.1739999 -2.1350982e-17 0)
          2.555               (7.1697149 -2.3032855e-17 0)
           2.56               (7.1653711 -2.4449483e-17 0)