# Residuals  
# Time       	p            	Ux           
0            
